+ 1 0 1 tcp 40 ------- 0 0.0 4.0 0 0
- 1 0 1 tcp 40 ------- 0 0.0 4.0 0 0
+ 1 2 3 cbr 1000 ------- 0 2.0 4.1 0 1
- 1 2 3 cbr 1000 ------- 0 2.0 4.1 0 1
+ 1.008 2 3 cbr 1000 ------- 0 2.0 4.1 1 2
- 1.008 2 3 cbr 1000 ------- 0 2.0 4.1 1 2
r 1.010003 0 1 tcp 40 ------- 0 0.0 4.0 0 0
+ 1.010003 1 4 tcp 40 ------- 0 0.0 4.0 0 0
- 1.010003 1 4 tcp 40 ------- 0 0.0 4.0 0 0
r 1.01008 2 3 cbr 1000 ------- 0 2.0 4.1 0 1
+ 1.01008 3 4 cbr 1000 ------- 0 2.0 4.1 0 1
- 1.01008 3 4 cbr 1000 ------- 0 2.0 4.1 0 1
+ 1.016 2 3 cbr 1000 ------- 0 2.0 4.1 2 3
- 1.016 2 3 cbr 1000 ------- 0 2.0 4.1 2 3
r 1.01808 2 3 cbr 1000 ------- 0 2.0 4.1 1 2
+ 1.01808 3 4 cbr 1000 ------- 0 2.0 4.1 1 2
- 1.01808 3 4 cbr 1000 ------- 0 2.0 4.1 1 2
r 1.020006 1 4 tcp 40 ------- 0 0.0 4.0 0 0
+ 1.020006 4 1 ack 40 ------- 0 4.0 0.0 0 4
- 1.020006 4 1 ack 40 ------- 0 4.0 0.0 0 4
r 1.02016 3 4 cbr 1000 ------- 0 2.0 4.1 0 1
+ 1.024 2 3 cbr 1000 ------- 0 2.0 4.1 3 5
- 1.024 2 3 cbr 1000 ------- 0 2.0 4.1 3 5
r 1.02608 2 3 cbr 1000 ------- 0 2.0 4.1 2 3
+ 1.02608 3 4 cbr 1000 ------- 0 2.0 4.1 2 3
- 1.02608 3 4 cbr 1000 ------- 0 2.0 4.1 2 3
r 1.02816 3 4 cbr 1000 ------- 0 2.0 4.1 1 2
r 1.03001 4 1 ack 40 ------- 0 4.0 0.0 0 4
+ 1.03001 1 0 ack 40 ------- 0 4.0 0.0 0 4
- 1.03001 1 0 ack 40 ------- 0 4.0 0.0 0 4
+ 1.032 2 3 cbr 1000 ------- 0 2.0 4.1 4 6
- 1.032 2 3 cbr 1000 ------- 0 2.0 4.1 4 6
r 1.03408 2 3 cbr 1000 ------- 0 2.0 4.1 3 5
+ 1.03408 3 4 cbr 1000 ------- 0 2.0 4.1 3 5
- 1.03408 3 4 cbr 1000 ------- 0 2.0 4.1 3 5
r 1.03616 3 4 cbr 1000 ------- 0 2.0 4.1 2 3
+ 1.04 2 3 cbr 1000 ------- 0 2.0 4.1 5 7
- 1.04 2 3 cbr 1000 ------- 0 2.0 4.1 5 7
r 1.040013 1 0 ack 40 ------- 0 4.0 0.0 0 4
+ 1.040013 0 1 tcp 1540 ------- 0 0.0 4.0 1 8
- 1.040013 0 1 tcp 1540 ------- 0 0.0 4.0 1 8
+ 1.040013 0 1 tcp 1540 ------- 0 0.0 4.0 2 9
- 1.040136 0 1 tcp 1540 ------- 0 0.0 4.0 2 9
r 1.04208 2 3 cbr 1000 ------- 0 2.0 4.1 4 6
+ 1.04208 3 4 cbr 1000 ------- 0 2.0 4.1 4 6
- 1.04208 3 4 cbr 1000 ------- 0 2.0 4.1 4 6
r 1.04416 3 4 cbr 1000 ------- 0 2.0 4.1 3 5
+ 1.048 2 3 cbr 1000 ------- 0 2.0 4.1 6 10
- 1.048 2 3 cbr 1000 ------- 0 2.0 4.1 6 10
r 1.05008 2 3 cbr 1000 ------- 0 2.0 4.1 5 7
+ 1.05008 3 4 cbr 1000 ------- 0 2.0 4.1 5 7
- 1.05008 3 4 cbr 1000 ------- 0 2.0 4.1 5 7
r 1.050136 0 1 tcp 1540 ------- 0 0.0 4.0 1 8
+ 1.050136 1 4 tcp 1540 ------- 0 0.0 4.0 1 8
- 1.050136 1 4 tcp 1540 ------- 0 0.0 4.0 1 8
r 1.050259 0 1 tcp 1540 ------- 0 0.0 4.0 2 9
+ 1.050259 1 4 tcp 1540 ------- 0 0.0 4.0 2 9
- 1.050259 1 4 tcp 1540 ------- 0 0.0 4.0 2 9
r 1.05216 3 4 cbr 1000 ------- 0 2.0 4.1 4 6
+ 1.056 2 3 cbr 1000 ------- 0 2.0 4.1 7 11
- 1.056 2 3 cbr 1000 ------- 0 2.0 4.1 7 11
r 1.05808 2 3 cbr 1000 ------- 0 2.0 4.1 6 10
+ 1.05808 3 4 cbr 1000 ------- 0 2.0 4.1 6 10
- 1.05808 3 4 cbr 1000 ------- 0 2.0 4.1 6 10
r 1.06016 3 4 cbr 1000 ------- 0 2.0 4.1 5 7
r 1.060259 1 4 tcp 1540 ------- 0 0.0 4.0 1 8
+ 1.060259 4 1 ack 40 ------- 0 4.0 0.0 1 12
- 1.060259 4 1 ack 40 ------- 0 4.0 0.0 1 12
r 1.060382 1 4 tcp 1540 ------- 0 0.0 4.0 2 9
+ 1.060382 4 1 ack 40 ------- 0 4.0 0.0 2 13
- 1.060382 4 1 ack 40 ------- 0 4.0 0.0 2 13
+ 1.064 2 3 cbr 1000 ------- 0 2.0 4.1 8 14
- 1.064 2 3 cbr 1000 ------- 0 2.0 4.1 8 14
r 1.06608 2 3 cbr 1000 ------- 0 2.0 4.1 7 11
+ 1.06608 3 4 cbr 1000 ------- 0 2.0 4.1 7 11
- 1.06608 3 4 cbr 1000 ------- 0 2.0 4.1 7 11
r 1.06816 3 4 cbr 1000 ------- 0 2.0 4.1 6 10
r 1.070262 4 1 ack 40 ------- 0 4.0 0.0 1 12
+ 1.070262 1 0 ack 40 ------- 0 4.0 0.0 1 12
- 1.070262 1 0 ack 40 ------- 0 4.0 0.0 1 12
r 1.070386 4 1 ack 40 ------- 0 4.0 0.0 2 13
+ 1.070386 1 0 ack 40 ------- 0 4.0 0.0 2 13
- 1.070386 1 0 ack 40 ------- 0 4.0 0.0 2 13
+ 1.072 2 3 cbr 1000 ------- 0 2.0 4.1 9 15
- 1.072 2 3 cbr 1000 ------- 0 2.0 4.1 9 15
r 1.07408 2 3 cbr 1000 ------- 0 2.0 4.1 8 14
+ 1.07408 3 4 cbr 1000 ------- 0 2.0 4.1 8 14
- 1.07408 3 4 cbr 1000 ------- 0 2.0 4.1 8 14
r 1.07616 3 4 cbr 1000 ------- 0 2.0 4.1 7 11
+ 1.08 2 3 cbr 1000 ------- 0 2.0 4.1 10 16
- 1.08 2 3 cbr 1000 ------- 0 2.0 4.1 10 16
r 1.080266 1 0 ack 40 ------- 0 4.0 0.0 1 12
+ 1.080266 0 1 tcp 1540 ------- 0 0.0 4.0 3 17
- 1.080266 0 1 tcp 1540 ------- 0 0.0 4.0 3 17
+ 1.080266 0 1 tcp 1540 ------- 0 0.0 4.0 4 18
r 1.080389 1 0 ack 40 ------- 0 4.0 0.0 2 13
+ 1.080389 0 1 tcp 1540 ------- 0 0.0 4.0 5 19
+ 1.080389 0 1 tcp 1540 ------- 0 0.0 4.0 6 20
- 1.080389 0 1 tcp 1540 ------- 0 0.0 4.0 4 18
- 1.080512 0 1 tcp 1540 ------- 0 0.0 4.0 5 19
- 1.080635 0 1 tcp 1540 ------- 0 0.0 4.0 6 20
r 1.08208 2 3 cbr 1000 ------- 0 2.0 4.1 9 15
+ 1.08208 3 4 cbr 1000 ------- 0 2.0 4.1 9 15
- 1.08208 3 4 cbr 1000 ------- 0 2.0 4.1 9 15
r 1.08416 3 4 cbr 1000 ------- 0 2.0 4.1 8 14
+ 1.088 2 3 cbr 1000 ------- 0 2.0 4.1 11 21
- 1.088 2 3 cbr 1000 ------- 0 2.0 4.1 11 21
r 1.09008 2 3 cbr 1000 ------- 0 2.0 4.1 10 16
+ 1.09008 3 4 cbr 1000 ------- 0 2.0 4.1 10 16
- 1.09008 3 4 cbr 1000 ------- 0 2.0 4.1 10 16
r 1.090389 0 1 tcp 1540 ------- 0 0.0 4.0 3 17
+ 1.090389 1 4 tcp 1540 ------- 0 0.0 4.0 3 17
- 1.090389 1 4 tcp 1540 ------- 0 0.0 4.0 3 17
r 1.090512 0 1 tcp 1540 ------- 0 0.0 4.0 4 18
+ 1.090512 1 4 tcp 1540 ------- 0 0.0 4.0 4 18
- 1.090512 1 4 tcp 1540 ------- 0 0.0 4.0 4 18
r 1.090635 0 1 tcp 1540 ------- 0 0.0 4.0 5 19
+ 1.090635 1 4 tcp 1540 ------- 0 0.0 4.0 5 19
- 1.090635 1 4 tcp 1540 ------- 0 0.0 4.0 5 19
r 1.090758 0 1 tcp 1540 ------- 0 0.0 4.0 6 20
+ 1.090758 1 4 tcp 1540 ------- 0 0.0 4.0 6 20
- 1.090758 1 4 tcp 1540 ------- 0 0.0 4.0 6 20
r 1.09216 3 4 cbr 1000 ------- 0 2.0 4.1 9 15
+ 1.096 2 3 cbr 1000 ------- 0 2.0 4.1 12 22
- 1.096 2 3 cbr 1000 ------- 0 2.0 4.1 12 22
r 1.09808 2 3 cbr 1000 ------- 0 2.0 4.1 11 21
+ 1.09808 3 4 cbr 1000 ------- 0 2.0 4.1 11 21
- 1.09808 3 4 cbr 1000 ------- 0 2.0 4.1 11 21
r 1.10016 3 4 cbr 1000 ------- 0 2.0 4.1 10 16
r 1.100512 1 4 tcp 1540 ------- 0 0.0 4.0 3 17
+ 1.100512 4 1 ack 40 ------- 0 4.0 0.0 3 23
- 1.100512 4 1 ack 40 ------- 0 4.0 0.0 3 23
r 1.100635 1 4 tcp 1540 ------- 0 0.0 4.0 4 18
+ 1.100635 4 1 ack 40 ------- 0 4.0 0.0 4 24
- 1.100635 4 1 ack 40 ------- 0 4.0 0.0 4 24
r 1.100758 1 4 tcp 1540 ------- 0 0.0 4.0 5 19
+ 1.100758 4 1 ack 40 ------- 0 4.0 0.0 5 25
- 1.100758 4 1 ack 40 ------- 0 4.0 0.0 5 25
r 1.100882 1 4 tcp 1540 ------- 0 0.0 4.0 6 20
+ 1.100882 4 1 ack 40 ------- 0 4.0 0.0 6 26
- 1.100882 4 1 ack 40 ------- 0 4.0 0.0 6 26
+ 1.104 2 3 cbr 1000 ------- 0 2.0 4.1 13 27
- 1.104 2 3 cbr 1000 ------- 0 2.0 4.1 13 27
r 1.10608 2 3 cbr 1000 ------- 0 2.0 4.1 12 22
+ 1.10608 3 4 cbr 1000 ------- 0 2.0 4.1 12 22
- 1.10608 3 4 cbr 1000 ------- 0 2.0 4.1 12 22
r 1.10816 3 4 cbr 1000 ------- 0 2.0 4.1 11 21
r 1.110515 4 1 ack 40 ------- 0 4.0 0.0 3 23
+ 1.110515 1 0 ack 40 ------- 0 4.0 0.0 3 23
- 1.110515 1 0 ack 40 ------- 0 4.0 0.0 3 23
r 1.110638 4 1 ack 40 ------- 0 4.0 0.0 4 24
+ 1.110638 1 0 ack 40 ------- 0 4.0 0.0 4 24
- 1.110638 1 0 ack 40 ------- 0 4.0 0.0 4 24
r 1.110762 4 1 ack 40 ------- 0 4.0 0.0 5 25
+ 1.110762 1 0 ack 40 ------- 0 4.0 0.0 5 25
- 1.110762 1 0 ack 40 ------- 0 4.0 0.0 5 25
r 1.110885 4 1 ack 40 ------- 0 4.0 0.0 6 26
+ 1.110885 1 0 ack 40 ------- 0 4.0 0.0 6 26
- 1.110885 1 0 ack 40 ------- 0 4.0 0.0 6 26
+ 1.112 2 3 cbr 1000 ------- 0 2.0 4.1 14 28
- 1.112 2 3 cbr 1000 ------- 0 2.0 4.1 14 28
r 1.11408 2 3 cbr 1000 ------- 0 2.0 4.1 13 27
+ 1.11408 3 4 cbr 1000 ------- 0 2.0 4.1 13 27
- 1.11408 3 4 cbr 1000 ------- 0 2.0 4.1 13 27
r 1.11616 3 4 cbr 1000 ------- 0 2.0 4.1 12 22
+ 1.12 2 3 cbr 1000 ------- 0 2.0 4.1 15 29
- 1.12 2 3 cbr 1000 ------- 0 2.0 4.1 15 29
r 1.120518 1 0 ack 40 ------- 0 4.0 0.0 3 23
+ 1.120518 0 1 tcp 1540 ------- 0 0.0 4.0 7 30
- 1.120518 0 1 tcp 1540 ------- 0 0.0 4.0 7 30
+ 1.120518 0 1 tcp 1540 ------- 0 0.0 4.0 8 31
r 1.120642 1 0 ack 40 ------- 0 4.0 0.0 4 24
+ 1.120642 0 1 tcp 1540 ------- 0 0.0 4.0 9 32
+ 1.120642 0 1 tcp 1540 ------- 0 0.0 4.0 10 33
- 1.120642 0 1 tcp 1540 ------- 0 0.0 4.0 8 31
r 1.120765 1 0 ack 40 ------- 0 4.0 0.0 5 25
+ 1.120765 0 1 tcp 1540 ------- 0 0.0 4.0 11 34
+ 1.120765 0 1 tcp 1540 ------- 0 0.0 4.0 12 35
- 1.120765 0 1 tcp 1540 ------- 0 0.0 4.0 9 32
r 1.120888 1 0 ack 40 ------- 0 4.0 0.0 6 26
+ 1.120888 0 1 tcp 1540 ------- 0 0.0 4.0 13 36
+ 1.120888 0 1 tcp 1540 ------- 0 0.0 4.0 14 37
- 1.120888 0 1 tcp 1540 ------- 0 0.0 4.0 10 33
- 1.121011 0 1 tcp 1540 ------- 0 0.0 4.0 11 34
- 1.121134 0 1 tcp 1540 ------- 0 0.0 4.0 12 35
- 1.121258 0 1 tcp 1540 ------- 0 0.0 4.0 13 36
- 1.121381 0 1 tcp 1540 ------- 0 0.0 4.0 14 37
r 1.12208 2 3 cbr 1000 ------- 0 2.0 4.1 14 28
+ 1.12208 3 4 cbr 1000 ------- 0 2.0 4.1 14 28
- 1.12208 3 4 cbr 1000 ------- 0 2.0 4.1 14 28
r 1.12416 3 4 cbr 1000 ------- 0 2.0 4.1 13 27
+ 1.128 2 3 cbr 1000 ------- 0 2.0 4.1 16 38
- 1.128 2 3 cbr 1000 ------- 0 2.0 4.1 16 38
r 1.13008 2 3 cbr 1000 ------- 0 2.0 4.1 15 29
+ 1.13008 3 4 cbr 1000 ------- 0 2.0 4.1 15 29
- 1.13008 3 4 cbr 1000 ------- 0 2.0 4.1 15 29
r 1.130642 0 1 tcp 1540 ------- 0 0.0 4.0 7 30
+ 1.130642 1 4 tcp 1540 ------- 0 0.0 4.0 7 30
- 1.130642 1 4 tcp 1540 ------- 0 0.0 4.0 7 30
r 1.130765 0 1 tcp 1540 ------- 0 0.0 4.0 8 31
+ 1.130765 1 4 tcp 1540 ------- 0 0.0 4.0 8 31
- 1.130765 1 4 tcp 1540 ------- 0 0.0 4.0 8 31
r 1.130888 0 1 tcp 1540 ------- 0 0.0 4.0 9 32
+ 1.130888 1 4 tcp 1540 ------- 0 0.0 4.0 9 32
- 1.130888 1 4 tcp 1540 ------- 0 0.0 4.0 9 32
r 1.131011 0 1 tcp 1540 ------- 0 0.0 4.0 10 33
+ 1.131011 1 4 tcp 1540 ------- 0 0.0 4.0 10 33
- 1.131011 1 4 tcp 1540 ------- 0 0.0 4.0 10 33
r 1.131134 0 1 tcp 1540 ------- 0 0.0 4.0 11 34
+ 1.131134 1 4 tcp 1540 ------- 0 0.0 4.0 11 34
- 1.131134 1 4 tcp 1540 ------- 0 0.0 4.0 11 34
r 1.131258 0 1 tcp 1540 ------- 0 0.0 4.0 12 35
+ 1.131258 1 4 tcp 1540 ------- 0 0.0 4.0 12 35
- 1.131258 1 4 tcp 1540 ------- 0 0.0 4.0 12 35
r 1.131381 0 1 tcp 1540 ------- 0 0.0 4.0 13 36
+ 1.131381 1 4 tcp 1540 ------- 0 0.0 4.0 13 36
- 1.131381 1 4 tcp 1540 ------- 0 0.0 4.0 13 36
r 1.131504 0 1 tcp 1540 ------- 0 0.0 4.0 14 37
+ 1.131504 1 4 tcp 1540 ------- 0 0.0 4.0 14 37
- 1.131504 1 4 tcp 1540 ------- 0 0.0 4.0 14 37
r 1.13216 3 4 cbr 1000 ------- 0 2.0 4.1 14 28
+ 1.136 2 3 cbr 1000 ------- 0 2.0 4.1 17 39
- 1.136 2 3 cbr 1000 ------- 0 2.0 4.1 17 39
r 1.13808 2 3 cbr 1000 ------- 0 2.0 4.1 16 38
+ 1.13808 3 4 cbr 1000 ------- 0 2.0 4.1 16 38
- 1.13808 3 4 cbr 1000 ------- 0 2.0 4.1 16 38
r 1.14016 3 4 cbr 1000 ------- 0 2.0 4.1 15 29
r 1.140765 1 4 tcp 1540 ------- 0 0.0 4.0 7 30
+ 1.140765 4 1 ack 40 ------- 0 4.0 0.0 7 40
- 1.140765 4 1 ack 40 ------- 0 4.0 0.0 7 40
r 1.140888 1 4 tcp 1540 ------- 0 0.0 4.0 8 31
+ 1.140888 4 1 ack 40 ------- 0 4.0 0.0 8 41
- 1.140888 4 1 ack 40 ------- 0 4.0 0.0 8 41
r 1.141011 1 4 tcp 1540 ------- 0 0.0 4.0 9 32
+ 1.141011 4 1 ack 40 ------- 0 4.0 0.0 9 42
- 1.141011 4 1 ack 40 ------- 0 4.0 0.0 9 42
r 1.141134 1 4 tcp 1540 ------- 0 0.0 4.0 10 33
+ 1.141134 4 1 ack 40 ------- 0 4.0 0.0 10 43
- 1.141134 4 1 ack 40 ------- 0 4.0 0.0 10 43
r 1.141258 1 4 tcp 1540 ------- 0 0.0 4.0 11 34
+ 1.141258 4 1 ack 40 ------- 0 4.0 0.0 11 44
- 1.141258 4 1 ack 40 ------- 0 4.0 0.0 11 44
r 1.141381 1 4 tcp 1540 ------- 0 0.0 4.0 12 35
+ 1.141381 4 1 ack 40 ------- 0 4.0 0.0 12 45
- 1.141381 4 1 ack 40 ------- 0 4.0 0.0 12 45
r 1.141504 1 4 tcp 1540 ------- 0 0.0 4.0 13 36
+ 1.141504 4 1 ack 40 ------- 0 4.0 0.0 13 46
- 1.141504 4 1 ack 40 ------- 0 4.0 0.0 13 46
r 1.141627 1 4 tcp 1540 ------- 0 0.0 4.0 14 37
+ 1.141627 4 1 ack 40 ------- 0 4.0 0.0 14 47
- 1.141627 4 1 ack 40 ------- 0 4.0 0.0 14 47
+ 1.144 2 3 cbr 1000 ------- 0 2.0 4.1 18 48
- 1.144 2 3 cbr 1000 ------- 0 2.0 4.1 18 48
r 1.14608 2 3 cbr 1000 ------- 0 2.0 4.1 17 39
+ 1.14608 3 4 cbr 1000 ------- 0 2.0 4.1 17 39
- 1.14608 3 4 cbr 1000 ------- 0 2.0 4.1 17 39
r 1.14816 3 4 cbr 1000 ------- 0 2.0 4.1 16 38
r 1.150768 4 1 ack 40 ------- 0 4.0 0.0 7 40
+ 1.150768 1 0 ack 40 ------- 0 4.0 0.0 7 40
- 1.150768 1 0 ack 40 ------- 0 4.0 0.0 7 40
r 1.150891 4 1 ack 40 ------- 0 4.0 0.0 8 41
+ 1.150891 1 0 ack 40 ------- 0 4.0 0.0 8 41
- 1.150891 1 0 ack 40 ------- 0 4.0 0.0 8 41
r 1.151014 4 1 ack 40 ------- 0 4.0 0.0 9 42
+ 1.151014 1 0 ack 40 ------- 0 4.0 0.0 9 42
- 1.151014 1 0 ack 40 ------- 0 4.0 0.0 9 42
r 1.151138 4 1 ack 40 ------- 0 4.0 0.0 10 43
+ 1.151138 1 0 ack 40 ------- 0 4.0 0.0 10 43
- 1.151138 1 0 ack 40 ------- 0 4.0 0.0 10 43
r 1.151261 4 1 ack 40 ------- 0 4.0 0.0 11 44
+ 1.151261 1 0 ack 40 ------- 0 4.0 0.0 11 44
- 1.151261 1 0 ack 40 ------- 0 4.0 0.0 11 44
r 1.151384 4 1 ack 40 ------- 0 4.0 0.0 12 45
+ 1.151384 1 0 ack 40 ------- 0 4.0 0.0 12 45
- 1.151384 1 0 ack 40 ------- 0 4.0 0.0 12 45
r 1.151507 4 1 ack 40 ------- 0 4.0 0.0 13 46
+ 1.151507 1 0 ack 40 ------- 0 4.0 0.0 13 46
- 1.151507 1 0 ack 40 ------- 0 4.0 0.0 13 46
r 1.15163 4 1 ack 40 ------- 0 4.0 0.0 14 47
+ 1.15163 1 0 ack 40 ------- 0 4.0 0.0 14 47
- 1.15163 1 0 ack 40 ------- 0 4.0 0.0 14 47
+ 1.152 2 3 cbr 1000 ------- 0 2.0 4.1 19 49
- 1.152 2 3 cbr 1000 ------- 0 2.0 4.1 19 49
r 1.15408 2 3 cbr 1000 ------- 0 2.0 4.1 18 48
+ 1.15408 3 4 cbr 1000 ------- 0 2.0 4.1 18 48
- 1.15408 3 4 cbr 1000 ------- 0 2.0 4.1 18 48
r 1.15616 3 4 cbr 1000 ------- 0 2.0 4.1 17 39
+ 1.16 2 3 cbr 1000 ------- 0 2.0 4.1 20 50
- 1.16 2 3 cbr 1000 ------- 0 2.0 4.1 20 50
r 1.160771 1 0 ack 40 ------- 0 4.0 0.0 7 40
+ 1.160771 0 1 tcp 1540 ------- 0 0.0 4.0 15 51
- 1.160771 0 1 tcp 1540 ------- 0 0.0 4.0 15 51
+ 1.160771 0 1 tcp 1540 ------- 0 0.0 4.0 16 52
r 1.160894 1 0 ack 40 ------- 0 4.0 0.0 8 41
+ 1.160894 0 1 tcp 1540 ------- 0 0.0 4.0 17 53
+ 1.160894 0 1 tcp 1540 ------- 0 0.0 4.0 18 54
- 1.160894 0 1 tcp 1540 ------- 0 0.0 4.0 16 52
r 1.161018 1 0 ack 40 ------- 0 4.0 0.0 9 42
+ 1.161018 0 1 tcp 1540 ------- 0 0.0 4.0 19 55
+ 1.161018 0 1 tcp 1540 ------- 0 0.0 4.0 20 56
- 1.161018 0 1 tcp 1540 ------- 0 0.0 4.0 17 53
r 1.161141 1 0 ack 40 ------- 0 4.0 0.0 10 43
+ 1.161141 0 1 tcp 1540 ------- 0 0.0 4.0 21 57
+ 1.161141 0 1 tcp 1540 ------- 0 0.0 4.0 22 58
- 1.161141 0 1 tcp 1540 ------- 0 0.0 4.0 18 54
r 1.161264 1 0 ack 40 ------- 0 4.0 0.0 11 44
+ 1.161264 0 1 tcp 1540 ------- 0 0.0 4.0 23 59
+ 1.161264 0 1 tcp 1540 ------- 0 0.0 4.0 24 60
- 1.161264 0 1 tcp 1540 ------- 0 0.0 4.0 19 55
r 1.161387 1 0 ack 40 ------- 0 4.0 0.0 12 45
+ 1.161387 0 1 tcp 1540 ------- 0 0.0 4.0 25 61
+ 1.161387 0 1 tcp 1540 ------- 0 0.0 4.0 26 62
- 1.161387 0 1 tcp 1540 ------- 0 0.0 4.0 20 56
r 1.16151 1 0 ack 40 ------- 0 4.0 0.0 13 46
+ 1.16151 0 1 tcp 1540 ------- 0 0.0 4.0 27 63
+ 1.16151 0 1 tcp 1540 ------- 0 0.0 4.0 28 64
- 1.16151 0 1 tcp 1540 ------- 0 0.0 4.0 21 57
r 1.161634 1 0 ack 40 ------- 0 4.0 0.0 14 47
+ 1.161634 0 1 tcp 1540 ------- 0 0.0 4.0 29 65
+ 1.161634 0 1 tcp 1540 ------- 0 0.0 4.0 30 66
- 1.161634 0 1 tcp 1540 ------- 0 0.0 4.0 22 58
- 1.161757 0 1 tcp 1540 ------- 0 0.0 4.0 23 59
- 1.16188 0 1 tcp 1540 ------- 0 0.0 4.0 24 60
- 1.162003 0 1 tcp 1540 ------- 0 0.0 4.0 25 61
r 1.16208 2 3 cbr 1000 ------- 0 2.0 4.1 19 49
+ 1.16208 3 4 cbr 1000 ------- 0 2.0 4.1 19 49
- 1.16208 3 4 cbr 1000 ------- 0 2.0 4.1 19 49
- 1.162126 0 1 tcp 1540 ------- 0 0.0 4.0 26 62
- 1.16225 0 1 tcp 1540 ------- 0 0.0 4.0 27 63
- 1.162373 0 1 tcp 1540 ------- 0 0.0 4.0 28 64
- 1.162496 0 1 tcp 1540 ------- 0 0.0 4.0 29 65
- 1.162619 0 1 tcp 1540 ------- 0 0.0 4.0 30 66
r 1.16416 3 4 cbr 1000 ------- 0 2.0 4.1 18 48
+ 1.168 2 3 cbr 1000 ------- 0 2.0 4.1 21 67
- 1.168 2 3 cbr 1000 ------- 0 2.0 4.1 21 67
r 1.17008 2 3 cbr 1000 ------- 0 2.0 4.1 20 50
+ 1.17008 3 4 cbr 1000 ------- 0 2.0 4.1 20 50
- 1.17008 3 4 cbr 1000 ------- 0 2.0 4.1 20 50
r 1.170894 0 1 tcp 1540 ------- 0 0.0 4.0 15 51
+ 1.170894 1 4 tcp 1540 ------- 0 0.0 4.0 15 51
- 1.170894 1 4 tcp 1540 ------- 0 0.0 4.0 15 51
r 1.171018 0 1 tcp 1540 ------- 0 0.0 4.0 16 52
+ 1.171018 1 4 tcp 1540 ------- 0 0.0 4.0 16 52
- 1.171018 1 4 tcp 1540 ------- 0 0.0 4.0 16 52
r 1.171141 0 1 tcp 1540 ------- 0 0.0 4.0 17 53
+ 1.171141 1 4 tcp 1540 ------- 0 0.0 4.0 17 53
- 1.171141 1 4 tcp 1540 ------- 0 0.0 4.0 17 53
r 1.171264 0 1 tcp 1540 ------- 0 0.0 4.0 18 54
+ 1.171264 1 4 tcp 1540 ------- 0 0.0 4.0 18 54
- 1.171264 1 4 tcp 1540 ------- 0 0.0 4.0 18 54
r 1.171387 0 1 tcp 1540 ------- 0 0.0 4.0 19 55
+ 1.171387 1 4 tcp 1540 ------- 0 0.0 4.0 19 55
- 1.171387 1 4 tcp 1540 ------- 0 0.0 4.0 19 55
r 1.17151 0 1 tcp 1540 ------- 0 0.0 4.0 20 56
+ 1.17151 1 4 tcp 1540 ------- 0 0.0 4.0 20 56
- 1.17151 1 4 tcp 1540 ------- 0 0.0 4.0 20 56
r 1.171634 0 1 tcp 1540 ------- 0 0.0 4.0 21 57
+ 1.171634 1 4 tcp 1540 ------- 0 0.0 4.0 21 57
- 1.171634 1 4 tcp 1540 ------- 0 0.0 4.0 21 57
r 1.171757 0 1 tcp 1540 ------- 0 0.0 4.0 22 58
+ 1.171757 1 4 tcp 1540 ------- 0 0.0 4.0 22 58
- 1.171757 1 4 tcp 1540 ------- 0 0.0 4.0 22 58
r 1.17188 0 1 tcp 1540 ------- 0 0.0 4.0 23 59
+ 1.17188 1 4 tcp 1540 ------- 0 0.0 4.0 23 59
- 1.17188 1 4 tcp 1540 ------- 0 0.0 4.0 23 59
r 1.172003 0 1 tcp 1540 ------- 0 0.0 4.0 24 60
+ 1.172003 1 4 tcp 1540 ------- 0 0.0 4.0 24 60
- 1.172003 1 4 tcp 1540 ------- 0 0.0 4.0 24 60
r 1.172126 0 1 tcp 1540 ------- 0 0.0 4.0 25 61
+ 1.172126 1 4 tcp 1540 ------- 0 0.0 4.0 25 61
- 1.172126 1 4 tcp 1540 ------- 0 0.0 4.0 25 61
r 1.17216 3 4 cbr 1000 ------- 0 2.0 4.1 19 49
r 1.17225 0 1 tcp 1540 ------- 0 0.0 4.0 26 62
+ 1.17225 1 4 tcp 1540 ------- 0 0.0 4.0 26 62
- 1.17225 1 4 tcp 1540 ------- 0 0.0 4.0 26 62
r 1.172373 0 1 tcp 1540 ------- 0 0.0 4.0 27 63
+ 1.172373 1 4 tcp 1540 ------- 0 0.0 4.0 27 63
- 1.172373 1 4 tcp 1540 ------- 0 0.0 4.0 27 63
r 1.172496 0 1 tcp 1540 ------- 0 0.0 4.0 28 64
+ 1.172496 1 4 tcp 1540 ------- 0 0.0 4.0 28 64
- 1.172496 1 4 tcp 1540 ------- 0 0.0 4.0 28 64
r 1.172619 0 1 tcp 1540 ------- 0 0.0 4.0 29 65
+ 1.172619 1 4 tcp 1540 ------- 0 0.0 4.0 29 65
- 1.172619 1 4 tcp 1540 ------- 0 0.0 4.0 29 65
r 1.172742 0 1 tcp 1540 ------- 0 0.0 4.0 30 66
+ 1.172742 1 4 tcp 1540 ------- 0 0.0 4.0 30 66
- 1.172742 1 4 tcp 1540 ------- 0 0.0 4.0 30 66
+ 1.176 2 3 cbr 1000 ------- 0 2.0 4.1 22 68
- 1.176 2 3 cbr 1000 ------- 0 2.0 4.1 22 68
r 1.17808 2 3 cbr 1000 ------- 0 2.0 4.1 21 67
+ 1.17808 3 4 cbr 1000 ------- 0 2.0 4.1 21 67
- 1.17808 3 4 cbr 1000 ------- 0 2.0 4.1 21 67
r 1.18016 3 4 cbr 1000 ------- 0 2.0 4.1 20 50
r 1.181018 1 4 tcp 1540 ------- 0 0.0 4.0 15 51
+ 1.181018 4 1 ack 40 ------- 0 4.0 0.0 15 69
- 1.181018 4 1 ack 40 ------- 0 4.0 0.0 15 69
r 1.181141 1 4 tcp 1540 ------- 0 0.0 4.0 16 52
+ 1.181141 4 1 ack 40 ------- 0 4.0 0.0 16 70
- 1.181141 4 1 ack 40 ------- 0 4.0 0.0 16 70
r 1.181264 1 4 tcp 1540 ------- 0 0.0 4.0 17 53
+ 1.181264 4 1 ack 40 ------- 0 4.0 0.0 17 71
- 1.181264 4 1 ack 40 ------- 0 4.0 0.0 17 71
r 1.181387 1 4 tcp 1540 ------- 0 0.0 4.0 18 54
+ 1.181387 4 1 ack 40 ------- 0 4.0 0.0 18 72
- 1.181387 4 1 ack 40 ------- 0 4.0 0.0 18 72
r 1.18151 1 4 tcp 1540 ------- 0 0.0 4.0 19 55
+ 1.18151 4 1 ack 40 ------- 0 4.0 0.0 19 73
- 1.18151 4 1 ack 40 ------- 0 4.0 0.0 19 73
r 1.181634 1 4 tcp 1540 ------- 0 0.0 4.0 20 56
+ 1.181634 4 1 ack 40 ------- 0 4.0 0.0 20 74
- 1.181634 4 1 ack 40 ------- 0 4.0 0.0 20 74
r 1.181757 1 4 tcp 1540 ------- 0 0.0 4.0 21 57
+ 1.181757 4 1 ack 40 ------- 0 4.0 0.0 21 75
- 1.181757 4 1 ack 40 ------- 0 4.0 0.0 21 75
r 1.18188 1 4 tcp 1540 ------- 0 0.0 4.0 22 58
+ 1.18188 4 1 ack 40 ------- 0 4.0 0.0 22 76
- 1.18188 4 1 ack 40 ------- 0 4.0 0.0 22 76
r 1.182003 1 4 tcp 1540 ------- 0 0.0 4.0 23 59
+ 1.182003 4 1 ack 40 ------- 0 4.0 0.0 23 77
- 1.182003 4 1 ack 40 ------- 0 4.0 0.0 23 77
r 1.182126 1 4 tcp 1540 ------- 0 0.0 4.0 24 60
+ 1.182126 4 1 ack 40 ------- 0 4.0 0.0 24 78
- 1.182126 4 1 ack 40 ------- 0 4.0 0.0 24 78
r 1.18225 1 4 tcp 1540 ------- 0 0.0 4.0 25 61
+ 1.18225 4 1 ack 40 ------- 0 4.0 0.0 25 79
- 1.18225 4 1 ack 40 ------- 0 4.0 0.0 25 79
r 1.182373 1 4 tcp 1540 ------- 0 0.0 4.0 26 62
+ 1.182373 4 1 ack 40 ------- 0 4.0 0.0 26 80
- 1.182373 4 1 ack 40 ------- 0 4.0 0.0 26 80
r 1.182496 1 4 tcp 1540 ------- 0 0.0 4.0 27 63
+ 1.182496 4 1 ack 40 ------- 0 4.0 0.0 27 81
- 1.182496 4 1 ack 40 ------- 0 4.0 0.0 27 81
r 1.182619 1 4 tcp 1540 ------- 0 0.0 4.0 28 64
+ 1.182619 4 1 ack 40 ------- 0 4.0 0.0 28 82
- 1.182619 4 1 ack 40 ------- 0 4.0 0.0 28 82
r 1.182742 1 4 tcp 1540 ------- 0 0.0 4.0 29 65
+ 1.182742 4 1 ack 40 ------- 0 4.0 0.0 29 83
- 1.182742 4 1 ack 40 ------- 0 4.0 0.0 29 83
r 1.182866 1 4 tcp 1540 ------- 0 0.0 4.0 30 66
+ 1.182866 4 1 ack 40 ------- 0 4.0 0.0 30 84
- 1.182866 4 1 ack 40 ------- 0 4.0 0.0 30 84
+ 1.184 2 3 cbr 1000 ------- 0 2.0 4.1 23 85
- 1.184 2 3 cbr 1000 ------- 0 2.0 4.1 23 85
r 1.18608 2 3 cbr 1000 ------- 0 2.0 4.1 22 68
+ 1.18608 3 4 cbr 1000 ------- 0 2.0 4.1 22 68
- 1.18608 3 4 cbr 1000 ------- 0 2.0 4.1 22 68
r 1.18816 3 4 cbr 1000 ------- 0 2.0 4.1 21 67
r 1.191021 4 1 ack 40 ------- 0 4.0 0.0 15 69
+ 1.191021 1 0 ack 40 ------- 0 4.0 0.0 15 69
- 1.191021 1 0 ack 40 ------- 0 4.0 0.0 15 69
r 1.191144 4 1 ack 40 ------- 0 4.0 0.0 16 70
+ 1.191144 1 0 ack 40 ------- 0 4.0 0.0 16 70
- 1.191144 1 0 ack 40 ------- 0 4.0 0.0 16 70
r 1.191267 4 1 ack 40 ------- 0 4.0 0.0 17 71
+ 1.191267 1 0 ack 40 ------- 0 4.0 0.0 17 71
- 1.191267 1 0 ack 40 ------- 0 4.0 0.0 17 71
r 1.19139 4 1 ack 40 ------- 0 4.0 0.0 18 72
+ 1.19139 1 0 ack 40 ------- 0 4.0 0.0 18 72
- 1.19139 1 0 ack 40 ------- 0 4.0 0.0 18 72
r 1.191514 4 1 ack 40 ------- 0 4.0 0.0 19 73
+ 1.191514 1 0 ack 40 ------- 0 4.0 0.0 19 73
- 1.191514 1 0 ack 40 ------- 0 4.0 0.0 19 73
r 1.191637 4 1 ack 40 ------- 0 4.0 0.0 20 74
+ 1.191637 1 0 ack 40 ------- 0 4.0 0.0 20 74
- 1.191637 1 0 ack 40 ------- 0 4.0 0.0 20 74
r 1.19176 4 1 ack 40 ------- 0 4.0 0.0 21 75
+ 1.19176 1 0 ack 40 ------- 0 4.0 0.0 21 75
- 1.19176 1 0 ack 40 ------- 0 4.0 0.0 21 75
r 1.191883 4 1 ack 40 ------- 0 4.0 0.0 22 76
+ 1.191883 1 0 ack 40 ------- 0 4.0 0.0 22 76
- 1.191883 1 0 ack 40 ------- 0 4.0 0.0 22 76
+ 1.192 2 3 cbr 1000 ------- 0 2.0 4.1 24 86
- 1.192 2 3 cbr 1000 ------- 0 2.0 4.1 24 86
r 1.192006 4 1 ack 40 ------- 0 4.0 0.0 23 77
+ 1.192006 1 0 ack 40 ------- 0 4.0 0.0 23 77
- 1.192006 1 0 ack 40 ------- 0 4.0 0.0 23 77
r 1.19213 4 1 ack 40 ------- 0 4.0 0.0 24 78
+ 1.19213 1 0 ack 40 ------- 0 4.0 0.0 24 78
- 1.19213 1 0 ack 40 ------- 0 4.0 0.0 24 78
r 1.192253 4 1 ack 40 ------- 0 4.0 0.0 25 79
+ 1.192253 1 0 ack 40 ------- 0 4.0 0.0 25 79
- 1.192253 1 0 ack 40 ------- 0 4.0 0.0 25 79
r 1.192376 4 1 ack 40 ------- 0 4.0 0.0 26 80
+ 1.192376 1 0 ack 40 ------- 0 4.0 0.0 26 80
- 1.192376 1 0 ack 40 ------- 0 4.0 0.0 26 80
r 1.192499 4 1 ack 40 ------- 0 4.0 0.0 27 81
+ 1.192499 1 0 ack 40 ------- 0 4.0 0.0 27 81
- 1.192499 1 0 ack 40 ------- 0 4.0 0.0 27 81
r 1.192622 4 1 ack 40 ------- 0 4.0 0.0 28 82
+ 1.192622 1 0 ack 40 ------- 0 4.0 0.0 28 82
- 1.192622 1 0 ack 40 ------- 0 4.0 0.0 28 82
r 1.192746 4 1 ack 40 ------- 0 4.0 0.0 29 83
+ 1.192746 1 0 ack 40 ------- 0 4.0 0.0 29 83
- 1.192746 1 0 ack 40 ------- 0 4.0 0.0 29 83
r 1.192869 4 1 ack 40 ------- 0 4.0 0.0 30 84
+ 1.192869 1 0 ack 40 ------- 0 4.0 0.0 30 84
- 1.192869 1 0 ack 40 ------- 0 4.0 0.0 30 84
r 1.19408 2 3 cbr 1000 ------- 0 2.0 4.1 23 85
+ 1.19408 3 4 cbr 1000 ------- 0 2.0 4.1 23 85
- 1.19408 3 4 cbr 1000 ------- 0 2.0 4.1 23 85
r 1.19616 3 4 cbr 1000 ------- 0 2.0 4.1 22 68
+ 1.2 2 3 cbr 1000 ------- 0 2.0 4.1 25 87
- 1.2 2 3 cbr 1000 ------- 0 2.0 4.1 25 87
r 1.201024 1 0 ack 40 ------- 0 4.0 0.0 15 69
+ 1.201024 0 1 tcp 1540 ------- 0 0.0 4.0 31 88
- 1.201024 0 1 tcp 1540 ------- 0 0.0 4.0 31 88
+ 1.201024 0 1 tcp 1540 ------- 0 0.0 4.0 32 89
r 1.201147 1 0 ack 40 ------- 0 4.0 0.0 16 70
+ 1.201147 0 1 tcp 1540 ------- 0 0.0 4.0 33 90
+ 1.201147 0 1 tcp 1540 ------- 0 0.0 4.0 34 91
- 1.201147 0 1 tcp 1540 ------- 0 0.0 4.0 32 89
r 1.20127 1 0 ack 40 ------- 0 4.0 0.0 17 71
+ 1.20127 0 1 tcp 1540 ------- 0 0.0 4.0 35 92
+ 1.20127 0 1 tcp 1540 ------- 0 0.0 4.0 36 93
- 1.20127 0 1 tcp 1540 ------- 0 0.0 4.0 33 90
r 1.201394 1 0 ack 40 ------- 0 4.0 0.0 18 72
+ 1.201394 0 1 tcp 1540 ------- 0 0.0 4.0 37 94
+ 1.201394 0 1 tcp 1540 ------- 0 0.0 4.0 38 95
- 1.201394 0 1 tcp 1540 ------- 0 0.0 4.0 34 91
r 1.201517 1 0 ack 40 ------- 0 4.0 0.0 19 73
+ 1.201517 0 1 tcp 1540 ------- 0 0.0 4.0 39 96
- 1.201517 0 1 tcp 1540 ------- 0 0.0 4.0 35 92
r 1.20164 1 0 ack 40 ------- 0 4.0 0.0 20 74
+ 1.20164 0 1 tcp 1540 ------- 0 0.0 4.0 40 97
- 1.20164 0 1 tcp 1540 ------- 0 0.0 4.0 36 93
r 1.201763 1 0 ack 40 ------- 0 4.0 0.0 21 75
+ 1.201763 0 1 tcp 1540 ------- 0 0.0 4.0 41 98
- 1.201763 0 1 tcp 1540 ------- 0 0.0 4.0 37 94
r 1.201886 1 0 ack 40 ------- 0 4.0 0.0 22 76
+ 1.201886 0 1 tcp 1540 ------- 0 0.0 4.0 42 99
- 1.201886 0 1 tcp 1540 ------- 0 0.0 4.0 38 95
r 1.20201 1 0 ack 40 ------- 0 4.0 0.0 23 77
+ 1.20201 0 1 tcp 1540 ------- 0 0.0 4.0 43 100
- 1.20201 0 1 tcp 1540 ------- 0 0.0 4.0 39 96
r 1.20208 2 3 cbr 1000 ------- 0 2.0 4.1 24 86
+ 1.20208 3 4 cbr 1000 ------- 0 2.0 4.1 24 86
- 1.20208 3 4 cbr 1000 ------- 0 2.0 4.1 24 86
r 1.202133 1 0 ack 40 ------- 0 4.0 0.0 24 78
+ 1.202133 0 1 tcp 1540 ------- 0 0.0 4.0 44 101
- 1.202133 0 1 tcp 1540 ------- 0 0.0 4.0 40 97
r 1.202256 1 0 ack 40 ------- 0 4.0 0.0 25 79
+ 1.202256 0 1 tcp 1540 ------- 0 0.0 4.0 45 102
- 1.202256 0 1 tcp 1540 ------- 0 0.0 4.0 41 98
r 1.202379 1 0 ack 40 ------- 0 4.0 0.0 26 80
+ 1.202379 0 1 tcp 1540 ------- 0 0.0 4.0 46 103
- 1.202379 0 1 tcp 1540 ------- 0 0.0 4.0 42 99
r 1.202502 1 0 ack 40 ------- 0 4.0 0.0 27 81
+ 1.202502 0 1 tcp 1540 ------- 0 0.0 4.0 47 104
- 1.202502 0 1 tcp 1540 ------- 0 0.0 4.0 43 100
r 1.202626 1 0 ack 40 ------- 0 4.0 0.0 28 82
+ 1.202626 0 1 tcp 1540 ------- 0 0.0 4.0 48 105
- 1.202626 0 1 tcp 1540 ------- 0 0.0 4.0 44 101
r 1.202749 1 0 ack 40 ------- 0 4.0 0.0 29 83
+ 1.202749 0 1 tcp 1540 ------- 0 0.0 4.0 49 106
- 1.202749 0 1 tcp 1540 ------- 0 0.0 4.0 45 102
r 1.202872 1 0 ack 40 ------- 0 4.0 0.0 30 84
+ 1.202872 0 1 tcp 1540 ------- 0 0.0 4.0 50 107
- 1.202872 0 1 tcp 1540 ------- 0 0.0 4.0 46 103
- 1.202995 0 1 tcp 1540 ------- 0 0.0 4.0 47 104
- 1.203118 0 1 tcp 1540 ------- 0 0.0 4.0 48 105
- 1.203242 0 1 tcp 1540 ------- 0 0.0 4.0 49 106
- 1.203365 0 1 tcp 1540 ------- 0 0.0 4.0 50 107
r 1.20416 3 4 cbr 1000 ------- 0 2.0 4.1 23 85
+ 1.208 2 3 cbr 1000 ------- 0 2.0 4.1 26 108
- 1.208 2 3 cbr 1000 ------- 0 2.0 4.1 26 108
r 1.21008 2 3 cbr 1000 ------- 0 2.0 4.1 25 87
+ 1.21008 3 4 cbr 1000 ------- 0 2.0 4.1 25 87
- 1.21008 3 4 cbr 1000 ------- 0 2.0 4.1 25 87
r 1.211147 0 1 tcp 1540 ------- 0 0.0 4.0 31 88
+ 1.211147 1 4 tcp 1540 ------- 0 0.0 4.0 31 88
- 1.211147 1 4 tcp 1540 ------- 0 0.0 4.0 31 88
r 1.21127 0 1 tcp 1540 ------- 0 0.0 4.0 32 89
+ 1.21127 1 4 tcp 1540 ------- 0 0.0 4.0 32 89
- 1.21127 1 4 tcp 1540 ------- 0 0.0 4.0 32 89
r 1.211394 0 1 tcp 1540 ------- 0 0.0 4.0 33 90
+ 1.211394 1 4 tcp 1540 ------- 0 0.0 4.0 33 90
- 1.211394 1 4 tcp 1540 ------- 0 0.0 4.0 33 90
r 1.211517 0 1 tcp 1540 ------- 0 0.0 4.0 34 91
+ 1.211517 1 4 tcp 1540 ------- 0 0.0 4.0 34 91
- 1.211517 1 4 tcp 1540 ------- 0 0.0 4.0 34 91
r 1.21164 0 1 tcp 1540 ------- 0 0.0 4.0 35 92
+ 1.21164 1 4 tcp 1540 ------- 0 0.0 4.0 35 92
- 1.21164 1 4 tcp 1540 ------- 0 0.0 4.0 35 92
r 1.211763 0 1 tcp 1540 ------- 0 0.0 4.0 36 93
+ 1.211763 1 4 tcp 1540 ------- 0 0.0 4.0 36 93
- 1.211763 1 4 tcp 1540 ------- 0 0.0 4.0 36 93
r 1.211886 0 1 tcp 1540 ------- 0 0.0 4.0 37 94
+ 1.211886 1 4 tcp 1540 ------- 0 0.0 4.0 37 94
- 1.211886 1 4 tcp 1540 ------- 0 0.0 4.0 37 94
r 1.21201 0 1 tcp 1540 ------- 0 0.0 4.0 38 95
+ 1.21201 1 4 tcp 1540 ------- 0 0.0 4.0 38 95
- 1.21201 1 4 tcp 1540 ------- 0 0.0 4.0 38 95
r 1.212133 0 1 tcp 1540 ------- 0 0.0 4.0 39 96
+ 1.212133 1 4 tcp 1540 ------- 0 0.0 4.0 39 96
- 1.212133 1 4 tcp 1540 ------- 0 0.0 4.0 39 96
r 1.21216 3 4 cbr 1000 ------- 0 2.0 4.1 24 86
r 1.212256 0 1 tcp 1540 ------- 0 0.0 4.0 40 97
+ 1.212256 1 4 tcp 1540 ------- 0 0.0 4.0 40 97
- 1.212256 1 4 tcp 1540 ------- 0 0.0 4.0 40 97
r 1.212379 0 1 tcp 1540 ------- 0 0.0 4.0 41 98
+ 1.212379 1 4 tcp 1540 ------- 0 0.0 4.0 41 98
- 1.212379 1 4 tcp 1540 ------- 0 0.0 4.0 41 98
r 1.212502 0 1 tcp 1540 ------- 0 0.0 4.0 42 99
+ 1.212502 1 4 tcp 1540 ------- 0 0.0 4.0 42 99
- 1.212502 1 4 tcp 1540 ------- 0 0.0 4.0 42 99
r 1.212626 0 1 tcp 1540 ------- 0 0.0 4.0 43 100
+ 1.212626 1 4 tcp 1540 ------- 0 0.0 4.0 43 100
- 1.212626 1 4 tcp 1540 ------- 0 0.0 4.0 43 100
r 1.212749 0 1 tcp 1540 ------- 0 0.0 4.0 44 101
+ 1.212749 1 4 tcp 1540 ------- 0 0.0 4.0 44 101
- 1.212749 1 4 tcp 1540 ------- 0 0.0 4.0 44 101
r 1.212872 0 1 tcp 1540 ------- 0 0.0 4.0 45 102
+ 1.212872 1 4 tcp 1540 ------- 0 0.0 4.0 45 102
- 1.212872 1 4 tcp 1540 ------- 0 0.0 4.0 45 102
r 1.212995 0 1 tcp 1540 ------- 0 0.0 4.0 46 103
+ 1.212995 1 4 tcp 1540 ------- 0 0.0 4.0 46 103
- 1.212995 1 4 tcp 1540 ------- 0 0.0 4.0 46 103
r 1.213118 0 1 tcp 1540 ------- 0 0.0 4.0 47 104
+ 1.213118 1 4 tcp 1540 ------- 0 0.0 4.0 47 104
- 1.213118 1 4 tcp 1540 ------- 0 0.0 4.0 47 104
r 1.213242 0 1 tcp 1540 ------- 0 0.0 4.0 48 105
+ 1.213242 1 4 tcp 1540 ------- 0 0.0 4.0 48 105
- 1.213242 1 4 tcp 1540 ------- 0 0.0 4.0 48 105
r 1.213365 0 1 tcp 1540 ------- 0 0.0 4.0 49 106
+ 1.213365 1 4 tcp 1540 ------- 0 0.0 4.0 49 106
- 1.213365 1 4 tcp 1540 ------- 0 0.0 4.0 49 106
r 1.213488 0 1 tcp 1540 ------- 0 0.0 4.0 50 107
+ 1.213488 1 4 tcp 1540 ------- 0 0.0 4.0 50 107
- 1.213488 1 4 tcp 1540 ------- 0 0.0 4.0 50 107
+ 1.216 2 3 cbr 1000 ------- 0 2.0 4.1 27 109
- 1.216 2 3 cbr 1000 ------- 0 2.0 4.1 27 109
r 1.21808 2 3 cbr 1000 ------- 0 2.0 4.1 26 108
+ 1.21808 3 4 cbr 1000 ------- 0 2.0 4.1 26 108
- 1.21808 3 4 cbr 1000 ------- 0 2.0 4.1 26 108
r 1.22016 3 4 cbr 1000 ------- 0 2.0 4.1 25 87
r 1.22127 1 4 tcp 1540 ------- 0 0.0 4.0 31 88
+ 1.22127 4 1 ack 40 ------- 0 4.0 0.0 31 110
- 1.22127 4 1 ack 40 ------- 0 4.0 0.0 31 110
r 1.221394 1 4 tcp 1540 ------- 0 0.0 4.0 32 89
+ 1.221394 4 1 ack 40 ------- 0 4.0 0.0 32 111
- 1.221394 4 1 ack 40 ------- 0 4.0 0.0 32 111
r 1.221517 1 4 tcp 1540 ------- 0 0.0 4.0 33 90
+ 1.221517 4 1 ack 40 ------- 0 4.0 0.0 33 112
- 1.221517 4 1 ack 40 ------- 0 4.0 0.0 33 112