+ 1 0 1 tcp 40 ------- 0 0.0 4.0 0 0
- 1 0 1 tcp 40 ------- 0 0.0 4.0 0 0
+ 1 2 3 cbr 1000 ------- 0 2.0 4.1 0 1
- 1 2 3 cbr 1000 ------- 0 2.0 4.1 0 1
+ 1.008 2 3 cbr 1000 ------- 0 2.0 4.1 1 2
- 1.008 2 3 cbr 1000 ------- 0 2.0 4.1 1 2
r 1.010003 0 1 tcp 40 ------- 0 0.0 4.0 0 0
+ 1.010003 1 4 tcp 40 ------- 0 0.0 4.0 0 0
- 1.010003 1 4 tcp 40 ------- 0 0.0 4.0 0 0
r 1.01008 2 3 cbr 1000 ------- 0 2.0 4.1 0 1
+ 1.01008 3 4 cbr 1000 ------- 0 2.0 4.1 0 1
- 1.01008 3 4 cbr 1000 ------- 0 2.0 4.1 0 1
+ 1.016 2 3 cbr 1000 ------- 0 2.0 4.1 2 3
- 1.016 2 3 cbr 1000 ------- 0 2.0 4.1 2 3
r 1.01808 2 3 cbr 1000 ------- 0 2.0 4.1 1 2
+ 1.01808 3 4 cbr 1000 ------- 0 2.0 4.1 1 2
- 1.01808 3 4 cbr 1000 ------- 0 2.0 4.1 1 2
r 1.020006 1 4 tcp 40 ------- 0 0.0 4.0 0 0
+ 1.020006 4 1 ack 40 ------- 0 4.0 0.0 0 4
- 1.020006 4 1 ack 40 ------- 0 4.0 0.0 0 4