- 1.030097 2 1 ack 40 ------- 2 3.1 1.0 0 3
r 1.040066 2 0 ack 40 ------- 1 3.0 0.0 0 2
+ 1.040066 0 2 tcp 1540 ------- 1 0.0 3.0 1 4
- 1.040066 0 2 tcp 1540 ------- 1 0.0 3.0 1 4
+ 1.040066 0 2 tcp 1540 ------- 1 0.0 3.0 2 5
r 1.040098 2 1 ack 40 ------- 2 3.1 1.0 0 3
+ 1.040098 1 2 tcp 1540 ------- 2 1.0 3.1 1 6
- 1.040098 1 2 tcp 1540 ------- 2 1.0 3.1 1 6
+ 1.040098 1 2 tcp 1540 ------- 2 1.0 3.1 2 7
- 1.040107 0 2 tcp 1540 ------- 1 0.0 3.0 2 5
- 1.040139 1 2 tcp 1540 ------- 2 1.0 3.1 2 7
r 1.050107 0 3 tcp 1540 ------- 1 0.0 3.0 1 4
+ 1.050107 2 3 tcp 1540 ------- 1 0.0 3.0 1 4
- 1.050107 2 3 tcp 1540 ------- 1 0.0 3.0 1 4